[Molden Format]
[Atoms] AU
   C     1    6     -0.0000037795     0.0000000000     0.0000000000
   H     2    1      2.0220030283     0.0000000000     0.0000000000
   H     3    1     -0.6739934505    -1.5954956522    -1.0433744101
   H     4    1     -0.6739934505     1.7013203075    -0.8600520919
   H     5    1     -0.6739934505    -0.1058246554     1.9034265020
[GTO]
    1  0
  s      6  0
      3047.5249000000         0.0018347002
       457.3695100000         0.0140373012
       103.9486900000         0.0688426061
        29.2101550000         0.2321844206
         9.2866630000         0.4679413416
         3.1639270000         0.3623120322
  s      3  0
         7.8682724000        -0.1193324086
         1.8812885000        -0.1608542116
         0.5442493000         1.1434564826
  p      3  0
         7.8682724000         0.0689990956
         1.8812885000         0.3164239798
         0.5442493000         0.7443082524
  s      1  0
         0.1687144000         1.0000000000
  p      1  0
         0.1687144000         1.0000000000
  d      1  0
         0.8000000000         1.0000000000
 
    2  0
  s      3  0
        18.7311370000         0.0334945995
         2.8253937000         0.2347269467
         0.6401217000         0.8137573184
  s      1  0
         0.1612778000         1.0000000000
 
    3  0
  s      3  0
        18.7311370000         0.0334945995
         2.8253937000         0.2347269467
         0.6401217000         0.8137573184
  s      1  0
         0.1612778000         1.0000000000
 
    4  0
  s      3  0
        18.7311370000         0.0334945995
         2.8253937000         0.2347269467
         0.6401217000         0.8137573184
  s      1  0
         0.1612778000         1.0000000000
 
    5  0
  s      3  0
        18.7311370000         0.0334945995
         2.8253937000         0.2347269467
         0.6401217000         0.8137573184
  s      1  0
         0.1612778000         1.0000000000
 
[5D]
[9G]
[MO]
Sym= a    
Ene=  -0.10148102100199E+02
Spin= Alpha
Occup=       1.0000000000
     1    0.995175865257
     2    0.036721994720
     3    0.000000000078
     4    0.000000020555
     5   -0.000000008909
     6   -0.030224687362
     7   -0.000000054742
     8   -0.000000057888
     9    0.000000025399
    10    0.000000005741
    11    0.000000001140
    12   -0.000000008703
    13   -0.000000015735
    14   -0.000000005860
    15   -0.000814215869
    16    0.005818037085
    17   -0.000814240115
    18    0.005818017867
    19   -0.000814271180
    20    0.005818125841
    21   -0.000814244752
    22    0.005818026583
Sym= a    
Ene=  -0.69749048793247E+00
Spin= Alpha
Occup=       1.0000000000
     1   -0.199827287697
     2    0.383136303304
     3    0.000000076937
     4    0.000001692638
     5   -0.000000657297
     6    0.354355830548
     7    0.000000557255
     8    0.000001265288
     9   -0.000000658287
    10    0.000000227632
    11    0.000000157536
    12    0.000000110379
    13   -0.000000321060
    14   -0.000000096744
    15    0.137094854954
    16    0.037416793413
    17    0.137095033699
    18    0.037418181557
    19    0.137097137603
    20    0.037417004992
    21    0.137095281511
    22    0.037418132823
Sym= a    
Ene=  -0.39305937179960E+00
Spin= Alpha
Occup=       1.0000000000
     1    0.000000070379
     2   -0.000000076903
     3   -0.022769273844
     4    0.247933484010
     5    0.375043816276
     6   -0.000000510261
     7   -0.010765878439
     8    0.117241291743
     9    0.177347586044
    10    0.013930601186
    11   -0.012370670353
    12   -0.014307176069
    13    0.006540471827
    14   -0.008178056832
    15   -0.014901103309
    16   -0.012290246818
    17   -0.249711936472
    18   -0.205929712991
    19    0.037091977932
    20    0.030588771556
    21    0.227520682977
    22    0.187630625092
Sym= a    
Ene=  -0.39305845959160E+00
Spin= Alpha
Occup=       1.0000000000
     1    0.000000379636
     2   -0.000001081702
     3   -0.122796098807
     4    0.357818091836
     5   -0.244001111778
     6   -0.000001373501
     7   -0.058065397172
     8    0.169197980583
     9   -0.115377939198
    10   -0.008610659199
    11    0.008048389169
    12   -0.014572716380
    13   -0.013072417118
    14   -0.011802751277
    15   -0.080361844306
    16   -0.066273108117
    17   -0.075590062553
    18   -0.062338023139
    19    0.291736696910
    20    0.240589287625
    21   -0.135787013233
    22   -0.111981547308
Sym= a    
Ene=  -0.39305592233162E+00
Spin= Alpha
Occup=       1.0000000000
     1    0.000000450362
     2   -0.000000755998
     3    0.432493451891
     4    0.114646154120
     5   -0.049532559326
     6   -0.000001035121
     7    0.204512088119
     8    0.054212579473
     9   -0.023424195558
    10   -0.015096277052
    11    0.001633630362
    12   -0.004890733522
    13    0.019816122751
    14   -0.003781634259
    15    0.283037122481
    16    0.233416968550
    17   -0.136820765142
    18   -0.112834848564
    19   -0.017428264523
    20   -0.014373781878
    21   -0.128786870810
    22   -0.106207619549
Sym= a    
Ene=   0.12363881085761E+00
Spin= Alpha
Occup=       0.0000000000
     1   -0.157940903731
     2    0.171391689282
     3    0.000003001657
     4   -0.000005980994
     5    0.000002341310
     6    2.704598789925
     7    0.000013176857
     8   -0.000015162076
     9    0.000005343743
    10   -0.000000040131
    11    0.000000190255
    12   -0.000000222772
    13   -0.000000216995
    14   -0.000000182085
    15   -0.013098736447
    16   -1.019756423902
    17   -0.013099371342
    18   -1.019759949669
    19   -0.013094876691
    20   -1.019727861596
    21   -0.013098926784
    22   -1.019755550091
Sym= a    
Ene=   0.18376917311495E+00
Spin= Alpha
Occup=       0.0000000000
     1    0.000000015673
     2    0.000002461722
     3   -0.341441144669
     4   -0.157008147265
     5   -0.013658335608
     6   -0.000007589254
     7   -1.275866574488
     8   -0.586701692669
     9   -0.051047885425
    10   -0.009483587379
    11   -0.000416342749
    12   -0.006773055195
    13    0.015341830141
    14   -0.004786069547
    15    0.110422476110
    16    1.775831219823
    17   -0.079154466196
    18   -1.272956344702
    19    0.004037297402
    20    0.064938842602
    21   -0.035305997752
    22   -0.567800945690
Sym= a    
Ene=   0.18377052672587E+00
Spin= Alpha
Occup=       0.0000000000
     1    0.000000014822
     2   -0.000000974810
     3    0.064166616970
     4   -0.108724203548
     5   -0.354234204033
     6    0.000002387941
     7    0.239777922930
     8   -0.406278508548
     9   -1.323687959312
    10    0.014062924881
    11   -0.010798248181
    12   -0.007155367403
    13    0.004207133645
    14   -0.003314223660
    15   -0.020753107431
    16   -0.333735889886
    17   -0.079939111024
    18   -1.285636771301
    19   -0.012224364987
    20   -0.196614308608
    21    0.112916635713
    22    1.815984001740
Sym= a    
Ene=   0.18377264980571E+00
Spin= Alpha
Occup=       0.0000000000
     1    0.000002536905
     2    0.000000127935
     3    0.143949349880
     4   -0.323957173305
     5    0.125506932072
     6   -0.000072078937
     7    0.537894446100
     8   -1.210543906756
     9    0.468986594452
    10   -0.002826887983
    11    0.003825668073
    12   -0.012875064853
    13   -0.010407928558
    14   -0.009875186529
    15   -0.046551316404
    16   -0.748653908667
    17   -0.046206190890
    18   -0.743095220351
    19    0.120930177965
    20    1.944937998626
    21   -0.028173865083
    22   -0.453093335220
Sym= a    
Ene=   0.52643237879483E+00
Spin= Alpha
Occup=       0.0000000000
     1   -0.000000361362
     2   -0.000001474368
     3    0.134021567003
     4   -0.585623233141
     5   -0.440861914098
     6    0.000012997585
     7   -0.262442059583
     8    1.146753035361
     9    0.863282089117
    10   -0.040382590448
    11    0.033618203360
    12    0.070166330238
    13   -0.002874998127
    14    0.044656752820
    15    0.089660147039
    16    0.042473240884
    17    0.431431992674
    18    0.204380626021
    19   -0.234081089619
    20   -0.110893598633
    21   -0.287013192801
    22   -0.135973056328
Sym= a    
Ene=   0.52643350804547E+00
Spin= Alpha
Occup=       0.0000000000
     1   -0.000000281985
     2    0.000000341334
     3   -0.432221505277
     4   -0.425102148740
     5    0.433298350455
     6    0.000012022161
     7    0.846345109767
     8    0.832419612805
     9   -0.848470250243
    10    0.075036224822
    11   -0.033041092603
    12    0.037459194187
    13   -0.022596664369
    14    0.032415842921
    15   -0.289146412647
    16   -0.136965671472
    17    0.171210113348
    18    0.081091590934
    19   -0.266198078128
    20   -0.126109256314
    21    0.384137845902
    22    0.181963281733
Sym= a    
Ene=   0.52643430841787E+00
Spin= Alpha
Occup=       0.0000000000
     1    0.000000659489
     2    0.000007529308
     3   -0.592030994078
     4    0.177776029225
     5   -0.416134811965
     6   -0.000027290593
     7    1.159284840041
     8   -0.348126510480
     9    0.814871267578
    10   -0.001983249083
    11    0.031732614348
    12   -0.011462743263
    13   -0.091436566093
    14   -0.013556782533
    15   -0.396053778879
    16   -0.187607699240
    17    0.181826402898
    18    0.086134556680
    19    0.350505036318
    20    0.166048798638
    21   -0.136267328085
    22   -0.064557931120
Sym= a    
Ene=   0.91629694182244E+00
Spin= Alpha
Occup=       0.0000000000
     1    0.000002075895
     2    0.000003953995
     3    0.828672890977
     4    0.271601355831
     5   -0.077245535968
     6   -0.000025468391
     7   -1.184813844370
     8   -0.388328056823
     9    0.110444091630
    10    0.119938057754
    11   -0.010696180999
    12    0.049944282725
    13   -0.160258438817
    14    0.037609519703
    15   -0.836950319981
    16    1.639347447207
    17    0.455195544134
    18   -0.891563865870
    19    0.015000674004
    20   -0.029358264467
    21    0.366796721250
    22   -0.718421069637
Sym= a    
Ene=   0.91630071313703E+00
Spin= Alpha
Occup=       0.0000000000
     1   -0.000000222744
     2    0.000003307074
     3    0.047340296315
     4   -0.369730501709
     5   -0.792147893601
     6   -0.000005299631
     7   -0.067685436887
     8    0.528630813743
     9    1.132590749704
    10    0.127764044929
    11   -0.109693246261
    12   -0.097134827653
    13    0.060653287469
    14   -0.051198683303
    15   -0.047815870901
    16    0.093654796892
    17   -0.691562013002
    18    1.354551978932
    19   -0.010166660550
    20    0.019912751636
    21    0.749539215936
    22   -1.468112425460
Sym= a    
Ene=   0.91630372908464E+00
Spin= Alpha
Occup=       0.0000000000
     1    0.000005805767
     2   -0.000044791996
     3   -0.278377680857
     4    0.745638484866
     5   -0.364659344125
     6    0.000051184247
     7    0.398016658443
     8   -1.066092613017
     9    0.521378925219
    10    0.048580352421
    11   -0.050496150044
    12    0.132156175890
    13    0.105145422908
    14    0.103252545445
    15    0.281194334300
    16   -0.550733010685
    17    0.310506032005
    18   -0.608147030612
    19   -0.883996352200
    20    1.731523036512
    21    0.292436373192
    22   -0.572753202164
Sym= a    
Ene=   0.98419409857553E+00
Spin= Alpha
Occup=       0.0000000000
     1    0.109753062526
     2   -0.853990975334
     3    0.000006122925
     4   -0.000048680163
     5    0.000020622923
     6    0.997468588131
     7   -0.000014858987
     8    0.000060990806
     9   -0.000025880501
    10   -0.000003581233
    11    0.000003514397
    12   -0.000007968777
    13   -0.000003869231
    14   -0.000009262580
    15    0.661577321833
    16   -0.508800026917
    17    0.661553874696
    18   -0.508770445121
    19    0.661627229853
    20   -0.508904082753
    21    0.661559445574
    22   -0.508780626034
Sym= a    
Ene=   0.11172171856455E+01
Spin= Alpha
Occup=       0.0000000000
     1   -0.073537602162
     2   -2.244716776625
     3    0.000000427574
     4    0.000002433232
     5   -0.000002033267
     6    5.534667373875
     7    0.000012434285
     8    0.000010564732
     9   -0.000002293771
    10    0.000000684324
    11   -0.000001003899
    12   -0.000001239703
    13   -0.000003718550
    14    0.000003191342
    15   -0.297897914846
    16   -1.065591187755
    17   -0.297883930616
    18   -1.065598269020
    19   -0.297883178543
    20   -1.065618429817
    21   -0.297883463478
    22   -1.065602059992
Sym= a    
Ene=   0.16514770600906E+01
Spin= Alpha
Occup=       0.0000000000
     1    0.000000171117
     2    0.000002415777
     3   -0.000000018537
     4   -0.000000192630
     5   -0.000000507732
     6   -0.000007071366
     7   -0.000000376322
     8    0.000000456764
     9   -0.000000751074
    10   -0.472855099655
    11   -0.805493950360
    12    0.187633710376
    13   -0.273003881392
    14   -0.133603975010
    15    0.000001163201
    16    0.000001276048
    17    0.000000107707
    18    0.000001514200
    19    0.000000140677
    20    0.000001045711
    21    0.000002709258
    22    0.000000906735
Sym= a    
Ene=   0.16514776094626E+01
Spin= Alpha
Occup=       0.0000000000
     1    0.000001007607
     2    0.000009341005
     3    0.000000078199
     4    0.000000121320
     5    0.000000380808
     6   -0.000030937911
     7    0.000000976374
     8    0.000000883446
     9    0.000000306708
    10   -0.162491026740
    11   -0.133606378577
    12   -0.546003688558
    13   -0.093816877366
    14    0.805496348488
    15    0.000004334981
    16    0.000004800622
    17    0.000006723053
    18    0.000005053357
    19    0.000005371996
    20    0.000004671273
    21    0.000004657076
    22    0.000005370758
Sym= a    
Ene=   0.22751438698733E+01
Spin= Alpha
Occup=       0.0000000000
     1   -0.000000164891
     2   -0.000000543038
     3   -0.001615823409
     4    0.090551544559
     5    0.161683663348
     6    0.000004225565
     7   -0.003800296734
     8    0.212991999447
     9    0.380307790511
    10    0.635581866502
    11   -0.576400204172
    12   -0.585413352725
    13    0.355435258315
    14   -0.322814891964
    15    0.007534445316
    16   -0.000836335777
    17    0.719892937339
    18   -0.079879095032
    19   -0.037114849057
    20    0.004117436534
    21   -0.690315447201
    22    0.076594955869
Sym= a    
Ene=   0.22751461179940E+01
Spin= Alpha
Occup=       0.0000000000
     1    0.000000169681
     2   -0.000004618405
     3    0.178862774796
     4    0.043046000198
     5   -0.022321342907
     6    0.000005402495
     7    0.420706750714
     8    0.101248916302
     9   -0.052500654995
    10   -0.679509989131
    11    0.079573456364
    12   -0.195357896732
    13    0.882992886169
    14   -0.153456959902
    15   -0.834268433659
    16    0.092578800184
    17    0.382799469845
    18   -0.042482179058
    19    0.064870935325
    20   -0.007199797944
    21    0.386608428927
    22   -0.042905383062
Sym= a    
Ene=   0.22751529585371E+01
Spin= Alpha
Occup=       0.0000000000
     1    0.000000762496
     2   -0.000002999612
     3    0.048464705658
     4   -0.155863019911
     5    0.087775475882
     6   -0.000013407780
     7    0.113991268818
     8   -0.366595464315
     9    0.206451886872
    10    0.341175506386
    11   -0.312905646358
    12    0.701504753731
    13    0.542518292049
    14    0.555624220349
    15   -0.226040431119
    16    0.025084811646
    17   -0.287019496189
    18    0.031852270879
    19    0.861162279905
    20   -0.095556391630
    21   -0.348084241112
    22    0.038628070147
Sym= a    
Ene=  -0.10148102100199E+02
Spin= Beta 
Occup=       1.0000000000
     1    0.995175865257
     2    0.036721994720
     3    0.000000000078
     4    0.000000020555
     5   -0.000000008909
     6   -0.030224687362
     7   -0.000000054742
     8   -0.000000057888
     9    0.000000025399
    10    0.000000005741
    11    0.000000001140
    12   -0.000000008703
    13   -0.000000015735
    14   -0.000000005860
    15   -0.000814215869
    16    0.005818037085
    17   -0.000814240115
    18    0.005818017867
    19   -0.000814271180
    20    0.005818125841
    21   -0.000814244752
    22    0.005818026583
Sym= a    
Ene=  -0.69749048793247E+00
Spin= Beta 
Occup=       1.0000000000
     1   -0.199827287697
     2    0.383136303304
     3    0.000000076937
     4    0.000001692638
     5   -0.000000657297
     6    0.354355830548
     7    0.000000557255
     8    0.000001265288
     9   -0.000000658287
    10    0.000000227632
    11    0.000000157536
    12    0.000000110379
    13   -0.000000321060
    14   -0.000000096744
    15    0.137094854954
    16    0.037416793413
    17    0.137095033699
    18    0.037418181557
    19    0.137097137603
    20    0.037417004992
    21    0.137095281511
    22    0.037418132823
Sym= a    
Ene=  -0.39305937179960E+00
Spin= Beta 
Occup=       1.0000000000
     1    0.000000070379
     2   -0.000000076903
     3   -0.022769273816
     4    0.247933484148
     5    0.375043816187
     6   -0.000000510261
     7   -0.010765878426
     8    0.117241291808
     9    0.177347586001
    10    0.013930601181
    11   -0.012370670350
    12   -0.014307176075
    13    0.006540471825
    14   -0.008178056836
    15   -0.014901103291
    16   -0.012290246803
    17   -0.249711936519
    18   -0.205929713030
    19    0.037091978026
    20    0.030588771634
    21    0.227520682912
    22    0.187630625038
Sym= a    
Ene=  -0.39305845959160E+00
Spin= Beta 
Occup=       1.0000000000
     1    0.000000379636
     2   -0.000001081702
     3   -0.122796098742
     4    0.357818091769
     5   -0.244001111910
     6   -0.000001373501
     7   -0.058065397142
     8    0.169197980551
     9   -0.115377939261
    10   -0.008610659205
    11    0.008048389173
    12   -0.014572716376
    13   -0.013072417118
    14   -0.011802751274
    15   -0.080361844264
    16   -0.066273108082
    17   -0.075590062488
    18   -0.062338023085
    19    0.291736696895
    20    0.240589287613
    21   -0.135787013326
    22   -0.111981547384
Sym= a    
Ene=  -0.39305592233162E+00
Spin= Beta 
Occup=       1.0000000000
     1    0.000000450362
     2   -0.000000755998
     3    0.432493451911
     4    0.114646154033
     5   -0.049532559353
     6   -0.000001035121
     7    0.204512088129
     8    0.054212579432
     9   -0.023424195571
    10   -0.015096277053
    11    0.001633630363
    12   -0.004890733517
    13    0.019816122751
    14   -0.003781634256
    15    0.283037122494
    16    0.233416968561
    17   -0.136820765093
    18   -0.112834848523
    19   -0.017428264567
    20   -0.014373781915
    21   -0.128786870828
    22   -0.106207619564
Sym= a    
Ene=   0.12363881085761E+00
Spin= Beta 
Occup=       0.0000000000
     1   -0.157940903731
     2    0.171391689282
     3    0.000003001657
     4   -0.000005980994
     5    0.000002341310
     6    2.704598789925
     7    0.000013176857
     8   -0.000015162076
     9    0.000005343743
    10   -0.000000040131
    11    0.000000190255
    12   -0.000000222772
    13   -0.000000216995
    14   -0.000000182085
    15   -0.013098736447
    16   -1.019756423902
    17   -0.013099371342
    18   -1.019759949669
    19   -0.013094876691
    20   -1.019727861596
    21   -0.013098926784
    22   -1.019755550091
Sym= a    
Ene=   0.18376917311495E+00
Spin= Beta 
Occup=       0.0000000000
     1    0.000000015673
     2    0.000002461722
     3   -0.341441144640
     4   -0.157008147327
     5   -0.013658335620
     6   -0.000007589254
     7   -1.275866574380
     8   -0.586701692901
     9   -0.051047885471
    10   -0.009483587378
    11   -0.000416342749
    12   -0.006773055197
    13    0.015341830139
    14   -0.004786069549
    15    0.110422476101
    16    1.775831219672
    17   -0.079154466211
    18   -1.272956344939
    19    0.004037297421
    20    0.064938842897
    21   -0.035305997746
    22   -0.567800945597
Sym= a    
Ene=   0.18377052672587E+00
Spin= Beta 
Occup=       0.0000000000
     1    0.000000014822
     2   -0.000000974810
     3    0.064166616968
     4   -0.108724203459
     5   -0.354234204060
     6    0.000002387941
     7    0.239777922924
     8   -0.406278508217
     9   -1.323687959415
    10    0.014062924883
    11   -0.010798248182
    12   -0.007155367400
    13    0.004207133646
    14   -0.003314223657
    15   -0.020753107430
    16   -0.333735889877
    17   -0.079939111006
    18   -1.285636771015
    19   -0.012224365015
    20   -0.196614309060
    21    0.112916635723
    22    1.815984001896
Sym= a    
Ene=   0.18377264980571E+00
Spin= Beta 
Occup=       0.0000000000
     1    0.000002536905
     2    0.000000127935
     3    0.143949349950
     4   -0.323957173305
     5    0.125506931993
     6   -0.000072078937
     7    0.537894446360
     8   -1.210543906755
     9    0.468986594156
    10   -0.002826887978
    11    0.003825668071
    12   -0.012875064853
    13   -0.010407928559
    14   -0.009875186529
    15   -0.046551316427
    16   -0.748653909028
    17   -0.046206190896
    18   -0.743095220441
    19    0.120930177962
    20    1.944937998571
    21   -0.028173865052
    22   -0.453093334713
Sym= a    
Ene=   0.52643237879483E+00
Spin= Beta 
Occup=       0.0000000000
     1   -0.000000361362
     2   -0.000001474368
     3    0.134021566940
     4   -0.585623233307
     5   -0.440861913896
     6    0.000012997585
     7   -0.262442059461
     8    1.146753035687
     9    0.863282088722
    10   -0.040382590423
    11    0.033618203344
    12    0.070166330252
    13   -0.002874998122
    14    0.044656752833
    15    0.089660146997
    16    0.042473240864
    17    0.431431992706
    18    0.204380626036
    19   -0.234081089757
    20   -0.110893598698
    21   -0.287013192654
    22   -0.135973056258
Sym= a    
Ene=   0.52643350804547E+00
Spin= Beta 
Occup=       0.0000000000
     1   -0.000000281985
     2    0.000000341334
     3   -0.432221505127
     4   -0.425102148603
     5    0.433298350739
     6    0.000012022161
     7    0.846345109474
     8    0.832419612537
     9   -0.848470250799
    10    0.075036224837
    11   -0.033041092625
    12    0.037459194167
    13   -0.022596664338
    14    0.032415842911
    15   -0.289146412547
    16   -0.136965671425
    17    0.171210113144
    18    0.081091590837
    19   -0.266198078165
    20   -0.126109256331
    21    0.384137846042
    22    0.181963281799
Sym= a    
Ene=   0.52643430841787E+00
Spin= Beta 
Occup=       0.0000000000
     1    0.000000659489
     2    0.000007529308
     3   -0.592030994201
     4    0.177776029005
     5   -0.416134811884
     6   -0.000027290593
     7    1.159284840283
     8   -0.348126510049
     9    0.814871267419
    10   -0.001983249064
    11    0.031732614342
    12   -0.011462743241
    13   -0.091436566101
    14   -0.013556782516
    15   -0.396053778962
    16   -0.187607699279
    17    0.181826403014
    18    0.086134556735
    19    0.350505036199
    20    0.166048798581
    21   -0.136267327998
    22   -0.064557931079
Sym= a    
Ene=   0.91629694182244E+00
Spin= Beta 
Occup=       0.0000000000
     1    0.000002075895
     2    0.000003953995
     3    0.828672890981
     4    0.271601355831
     5   -0.077245535926
     6   -0.000025468391
     7   -1.184813844376
     8   -0.388328056822
     9    0.110444091571
    10    0.119938057747
    11   -0.010696180993
    12    0.049944282726
    13   -0.160258438822
    14    0.037609519703
    15   -0.836950319985
    16    1.639347447215
    17    0.455195544157
    18   -0.891563865914
    19    0.015000674024
    20   -0.029358264506
    21    0.366796721212
    22   -0.718421069562
Sym= a    
Ene=   0.91630071313703E+00
Spin= Beta 
Occup=       0.0000000000
     1   -0.000000222744
     2    0.000003307074
     3    0.047340296308
     4   -0.369730501583
     5   -0.792147893660
     6   -0.000005299631
     7   -0.067685436877
     8    0.528630813563
     9    1.132590749789
    10    0.127764044941
    11   -0.109693246270
    12   -0.097134827630
    13    0.060653287479
    14   -0.051198683285
    15   -0.047815870894
    16    0.093654796878
    17   -0.691562012935
    18    1.354551978800
    19   -0.010166660685
    20    0.019912751900
    21    0.749539215997
    22   -1.468112425578
Sym= a    
Ene=   0.91630372908464E+00
Spin= Beta 
Occup=       0.0000000000
     1    0.000005805767
     2   -0.000044791996
     3   -0.278377680846
     4    0.745638484929
     5   -0.364659344005
     6    0.000051184247
     7    0.398016658427
     8   -1.066092613106
     9    0.521378925048
    10    0.048580352404
    11   -0.050496150027
    12    0.132156175906
    13    0.105145422895
    14    0.103252545454
    15    0.281194334289
    16   -0.550733010663
    17    0.310506032121
    18   -0.608147030839
    19   -0.883996352198
    20    1.731523036509
    21    0.292436373085
    22   -0.572753201955
Sym= a    
Ene=   0.98419409857553E+00
Spin= Beta 
Occup=       0.0000000000
     1    0.109753062526
     2   -0.853990975334
     3    0.000006122925
     4   -0.000048680163
     5    0.000020622923
     6    0.997468588131
     7   -0.000014858987
     8    0.000060990806
     9   -0.000025880501
    10   -0.000003581234
    11    0.000003514397
    12   -0.000007968777
    13   -0.000003869231
    14   -0.000009262580
    15    0.661577321833
    16   -0.508800026917
    17    0.661553874696
    18   -0.508770445121
    19    0.661627229853
    20   -0.508904082753
    21    0.661559445574
    22   -0.508780626034
Sym= a    
Ene=   0.11172171856455E+01
Spin= Beta 
Occup=       0.0000000000
     1   -0.073537602162
     2   -2.244716776625
     3    0.000000427574
     4    0.000002433231
     5   -0.000002033267
     6    5.534667373875
     7    0.000012434285
     8    0.000010564732
     9   -0.000002293771
    10    0.000000684324
    11   -0.000001003899
    12   -0.000001239703
    13   -0.000003718550
    14    0.000003191342
    15   -0.297897914846
    16   -1.065591187755
    17   -0.297883930616
    18   -1.065598269020
    19   -0.297883178543
    20   -1.065618429817
    21   -0.297883463478
    22   -1.065602059992
Sym= a    
Ene=   0.16514770600906E+01
Spin= Beta 
Occup=       0.0000000000
     1    0.000000171117
     2    0.000002415777
     3   -0.000000018537
     4   -0.000000192630
     5   -0.000000507732
     6   -0.000007071366
     7   -0.000000376322
     8    0.000000456764
     9   -0.000000751074
    10   -0.472855099801
    11   -0.805493950481
    12    0.187633709884
    13   -0.273003881477
    14   -0.133603974284
    15    0.000001163201
    16    0.000001276048
    17    0.000000107707
    18    0.000001514200
    19    0.000000140677
    20    0.000001045711
    21    0.000002709258
    22    0.000000906735
Sym= a    
Ene=   0.16514776094626E+01
Spin= Beta 
Occup=       0.0000000000
     1    0.000001007607
     2    0.000009341005
     3    0.000000078199
     4    0.000000121320
     5    0.000000380808
     6   -0.000030937911
     7    0.000000976374
     8    0.000000883446
     9    0.000000306708
    10   -0.162491026314
    11   -0.133606377851
    12   -0.546003688727
    13   -0.093816877120
    14    0.805496348609
    15    0.000004334981
    16    0.000004800622
    17    0.000006723053
    18    0.000005053357
    19    0.000005371996
    20    0.000004671273
    21    0.000004657076
    22    0.000005370758
Sym= a    
Ene=   0.22751438698733E+01
Spin= Beta 
Occup=       0.0000000000
     1   -0.000000164891
     2   -0.000000543038
     3   -0.001615823448
     4    0.090551544535
     5    0.161683663361
     6    0.000004225565
     7   -0.003800296825
     8    0.212991999391
     9    0.380307790541
    10    0.635581866695
    11   -0.576400204218
    12   -0.585413352616
    13    0.355435258149
    14   -0.322814891879
    15    0.007534445497
    16   -0.000836335797
    17    0.719892937221
    18   -0.079879095019
    19   -0.037114848998
    20    0.004117436527
    21   -0.690315447325
    22    0.076594955883
Sym= a    
Ene=   0.22751461179940E+01
Spin= Beta 
Occup=       0.0000000000
     1    0.000000169681
     2   -0.000004618405
     3    0.178862774786
     4    0.043046000250
     5   -0.022321342885
     6    0.000005402495
     7    0.420706750692
     8    0.101248916423
     9   -0.052500654942
    10   -0.679509989043
    11    0.079573456284
    12   -0.195357897006
    13    0.882992886152
    14   -0.153456960085
    15   -0.834268433614
    16    0.092578800179
    17    0.382799470073
    18   -0.042482179083
    19    0.064870935153
    20   -0.007199797925
    21    0.386608428827
    22   -0.042905383051
Sym= a    
Ene=   0.22751529585371E+01
Spin= Beta 
Occup=       0.0000000000
     1    0.000000762496
     2   -0.000002999612
     3    0.048464705692
     4   -0.155863019910
     5    0.087775475864
     6   -0.000013407780
     7    0.113991268898
     8   -0.366595464315
     9    0.206451886829
    10    0.341175506202
    11   -0.312905646293
    12    0.701504753745
    13    0.542518292186
    14    0.555624220348
    15   -0.226040431278
    16    0.025084811664
    17   -0.287019496179
    18    0.031852270878
    19    0.861162279921
    20   -0.095556391632
    21   -0.348084240979
    22    0.038628070132
