start molecule

title "methane"
start methane

memory global 1600 mb heap 100 mb stack 600 mb

permanent_dir /qfs/people/jyst649/isicle_test
scratch_dir /scratch

echo
print low

geometry units angstroms print xyz noautoz noautosym
  C       -1.90047        0.93174        0.00000
  H       -0.83047        0.93174        0.00000
  H       -2.25713        0.08744       -0.55213
  H       -2.25713        1.83204       -0.45512
  H       -2.25713        0.87574        1.00725
end

basis spherical
 * library 6-31G*
end

dft
 odft
 direct
 xc b3lyp
 grid lebedev 75 11
end

task dft ignore

freq
 temp 1 298.15
end

task dft freq ignore

property
 SHIELDING 5 1 2 3 4 5
end

task dft property ignore

property
 SPINSPIN 4 1 2 1 3 1 4 1 5
end

task dft property ignore

property
 moldenfile
 molden_norm janpa
end

task dft property ignore

================================================================================


                                         
                                         
 
 
             Northwest Computational Chemistry Package (NWChem) 7.0.0
             --------------------------------------------------------
 
 
                    Environmental Molecular Sciences Laboratory
                       Pacific Northwest National Laboratory
                                Richland, WA 99352
 
                              Copyright (c) 1994-2020
                       Pacific Northwest National Laboratory
                            Battelle Memorial Institute
 
             NWChem is an open-source computational chemistry package
                        distributed under the terms of the
                      Educational Community License (ECL) 2.0
             A copy of the license is included with this distribution
                              in the LICENSE.TXT file
 
                                  ACKNOWLEDGMENT
                                  --------------

            This software and its documentation were developed at the
            EMSL at Pacific Northwest National Laboratory, a multiprogram
            national laboratory, operated for the U.S. Department of Energy
            by Battelle under Contract Number DE-AC05-76RL01830. Support
            for this work was provided by the Department of Energy Office
            of Biological and Environmental Research, Office of Basic
            Energy Sciences, and the Office of Advanced Scientific Computing.


           Job information
           ---------------

    hostname        = node216.local
    program         = /scratch/nwchem
    date            = Fri Mar 19 16:37:06 2021

    compiled        = Wed_May_27_18:28:56_2020
    source          = /qfs/people/scicons/apps/nwchem-7.0.1
    nwchem branch   = 7.0.1
    nwchem revision = nwchem_on_git-1461-g334ab9d
    ga revision     = 5.7.1
    use scalapack   = F
    input           = /qfs/people/jyst649/isicle_test/methane.nw
    prefix          = methane.
    data base       = /qfs/people/jyst649/isicle_test/methane.db
    status          = startup
    nproc           =       15
    time left       =     -1s



           Memory information
           ------------------

    heap     =   13107194 doubles =    100.0 Mbytes
    stack    =   78643199 doubles =    600.0 Mbytes
    global   =  209715200 doubles =   1600.0 Mbytes (distinct from heap & stack)
    total    =  301465593 doubles =   2300.0 Mbytes
    verify   = yes
    hardfail = no 


           Directory information
           ---------------------
 
  0 permanent = /qfs/people/jyst649/isicle_test
  0 scratch   = /scratch
 
 
 
 
                                NWChem Input Module
                                -------------------
 
 
                                      methane
                                      -------

 Scaling coordinates for geometry "geometry" by  1.889725989
 (inverse scale =  0.529177249)

 
 
                             Geometry "geometry" -> ""
                             -------------------------
 
 Output coordinates in angstroms (scale by  1.889725989 to convert to a.u.)
 
  No.       Tag          Charge          X              Y              Z
 ---- ---------------- ---------- -------------- -------------- --------------
    1 C                    6.0000    -0.00000200     0.00000000     0.00000000
    2 H                    1.0000     1.06999800     0.00000000     0.00000000
    3 H                    1.0000    -0.35666200    -0.84430000    -0.55213000
    4 H                    1.0000    -0.35666200     0.90030000    -0.45512000
    5 H                    1.0000    -0.35666200    -0.05600000     1.00725000
 
      Atomic Mass 
      ----------- 
 
      C                 12.000000
      H                  1.007825
 

 Effective nuclear repulsion energy (a.u.)      13.6865609100

            Nuclear Dipole moment (a.u.) 
            ----------------------------
        X                 Y               Z
 ---------------- ---------------- ----------------
     0.0000000000     0.0000000000     0.0000000000
 
 
            XYZ format geometry
            -------------------
     5
 geometry
 C                    -0.00000200     0.00000000     0.00000000
 H                     1.06999800     0.00000000     0.00000000
 H                    -0.35666200    -0.84430000    -0.55213000
 H                    -0.35666200     0.90030000    -0.45512000
 H                    -0.35666200    -0.05600000     1.00725000
 
 ==============================================================================
                                internuclear distances
 ------------------------------------------------------------------------------
       center one      |      center two      | atomic units |  angstroms
 ------------------------------------------------------------------------------
    2 H                |   1 C                |     2.02201  |     1.07000
    3 H                |   1 C                |     2.02200  |     1.07000
    4 H                |   1 C                |     2.02199  |     1.06999
    5 H                |   1 C                |     2.02200  |     1.07000
 ------------------------------------------------------------------------------
                         number of included internuclear distances:          4
 ==============================================================================



 ==============================================================================
                                 internuclear angles
 ------------------------------------------------------------------------------
        center 1       |       center 2       |       center 3       |  degrees
 ------------------------------------------------------------------------------
    2 H                |   1 C                |   3 H                |   109.47
    2 H                |   1 C                |   4 H                |   109.47
    2 H                |   1 C                |   5 H                |   109.47
    3 H                |   1 C                |   4 H                |   109.47
    3 H                |   1 C                |   5 H                |   109.47
    4 H                |   1 C                |   5 H                |   109.47
 ------------------------------------------------------------------------------
                            number of included internuclear angles:          6
 ==============================================================================



  library name resolved from: environment
  library file name is: </people/scicons/apps/nwchem-7.0.1//src/basis/libraries/
 >
  


 Summary of "ao basis" -> "" (spherical)
 ------------------------------------------------------------------------------
       Tag                 Description            Shells   Functions and Types
 ---------------- ------------------------------  ------  ---------------------
 *                           6-31G*                   on all atoms 


 
                                 NWChem DFT Module
                                 -----------------
 
 
                                      methane
 
 
                      Basis "ao basis" -> "ao basis" (spherical)
                      -----
  C (Carbon)
  ----------
            Exponent  Coefficients 
       -------------- ---------------------------------------------------------
  1 S  3.04752490E+03  0.001835
  1 S  4.57369510E+02  0.014037
  1 S  1.03948690E+02  0.068843
  1 S  2.92101550E+01  0.232184
  1 S  9.28666300E+00  0.467941
  1 S  3.16392700E+00  0.362312
 
  2 S  7.86827240E+00 -0.119332
  2 S  1.88128850E+00 -0.160854
  2 S  5.44249300E-01  1.143456
 
  3 P  7.86827240E+00  0.068999
  3 P  1.88128850E+00  0.316424
  3 P  5.44249300E-01  0.744308
 
  4 S  1.68714400E-01  1.000000
 
  5 P  1.68714400E-01  1.000000
 
  6 D  8.00000000E-01  1.000000
 
  H (Hydrogen)
  ------------
            Exponent  Coefficients 
       -------------- ---------------------------------------------------------
  1 S  1.87311370E+01  0.033495
  1 S  2.82539370E+00  0.234727
  1 S  6.40121700E-01  0.813757
 
  2 S  1.61277800E-01  1.000000
 


 Summary of "ao basis" -> "ao basis" (spherical)
 ------------------------------------------------------------------------------
       Tag                 Description            Shells   Functions and Types
 ---------------- ------------------------------  ------  ---------------------
 C                           6-31G*                  6       14   3s2p1d
 H                           6-31G*                  2        2   2s


 
  Caching 1-el integrals 
   Time after variat. SCF:      0.7
   Time prior to 1st pass:      0.7


         Total DFT energy =      -40.516209209980
      One electron energy =      -80.312108980420
           Coulomb energy =       33.055313944083
    Exchange-Corr. energy =       -6.945975083672
 Nuclear repulsion energy =       13.686560910028

 Numeric. integr. density =        9.999998403734

     Total iterative time =      0.2s



     --------------------------
     Expectation value of S2:  
     --------------------------
      <S2> =     -0.0000 (Exact =     0.0000)
 
 
 
                                NWChem Input Module
                                -------------------
 
 
 
 
                   NWChem Nuclear Hessian and Frequency Analysis
                   ---------------------------------------------
 
 
 
                              NWChem Analytic Hessian
                              -----------------------
 
 
                                 NWChem DFT Module
                                 -----------------
 
 
                                      methane
 
 
 
  Caching 1-el integrals 
   Time after variat. SCF:      1.1
   Time prior to 1st pass:      1.1


         Total DFT energy =      -40.516209230908
      One electron energy =      -80.312142639804
           Coulomb energy =       33.055350157274
    Exchange-Corr. energy =       -6.945977658406
 Nuclear repulsion energy =       13.686560910028

 Numeric. integr. density =        9.999998445628

     Total iterative time =      0.1s



     --------------------------
     Expectation value of S2:  
     --------------------------
      <S2> =      0.0000 (Exact =     0.0000)
 
  stpr_wrt_fd_from_sq: overwrite of existing file:
 /qfs/people/jyst649/isicle_test/methane.hess
 stpr_wrt_fd_dipole: overwrite of existing file
 /qfs/people/jyst649/isicle_test/methane.fd_ddipole

 HESSIAN: the one electron contributions are done in       0.0s


 HESSIAN: 2-el 1st deriv. term done in                     0.0s


 HESSIAN: 2-el 2nd deriv. term done in                     0.0s

  stpr_wrt_fd_from_sq: overwrite of existing file:
 /qfs/people/jyst649/isicle_test/methane.hess
 stpr_wrt_fd_dipole: overwrite of existing file
 /qfs/people/jyst649/isicle_test/methane.fd_ddipole

 HESSIAN: the two electron contributions are done in       0.4s

 SCF residual:   1.084870978191367E-007
 HESSIAN: the CPHF contributions are done
  stpr_wrt_fd_from_sq: overwrite of existing file:
 /qfs/people/jyst649/isicle_test/methane.hess
 stpr_wrt_fd_dipole: overwrite of existing file
 /qfs/people/jyst649/isicle_test/methane.fd_ddipole

 Derivative Dipole

  
  
 X vector of derivative dipole (au) [debye/angstrom]
 d_dipole_x/<atom=   1,x> =    -0.0303     [   -0.1454]
 d_dipole_x/<atom=   1,y> =    -0.0000     [   -0.0000]
 d_dipole_x/<atom=   1,z> =    -0.0000     [   -0.0000]
 d_dipole_x/<atom=   2,x> =    -0.1372     [   -0.6592]
 d_dipole_x/<atom=   2,y> =     0.0000     [    0.0000]
 d_dipole_x/<atom=   2,z> =     0.0000     [    0.0000]
 d_dipole_x/<atom=   3,x> =     0.0558     [    0.2682]
 d_dipole_x/<atom=   3,y> =    -0.0571     [   -0.2744]
 d_dipole_x/<atom=   3,z> =    -0.0374     [   -0.1794]
 d_dipole_x/<atom=   4,x> =     0.0558     [    0.2682]
 d_dipole_x/<atom=   4,y> =     0.0609     [    0.2926]
 d_dipole_x/<atom=   4,z> =    -0.0308     [   -0.1479]
 d_dipole_x/<atom=   5,x> =     0.0558     [    0.2682]
 d_dipole_x/<atom=   5,y> =    -0.0038     [   -0.0182]
 d_dipole_x/<atom=   5,z> =     0.0682     [    0.3274]
  
 Y vector of derivative dipole (au) [debye/angstrom]
 d_dipole_y/<atom=   1,x> =     0.0000     [    0.0000]
 d_dipole_y/<atom=   1,y> =    -0.0303     [   -0.1454]
 d_dipole_y/<atom=   1,z> =    -0.0000     [   -0.0000]
 d_dipole_y/<atom=   2,x> =    -0.0000     [   -0.0000]
 d_dipole_y/<atom=   2,y> =     0.0800     [    0.3841]
 d_dipole_y/<atom=   2,z> =     0.0000     [    0.0000]
 d_dipole_y/<atom=   3,x> =    -0.0571     [   -0.2744]
 d_dipole_y/<atom=   3,y> =    -0.0553     [   -0.2655]
 d_dipole_y/<atom=   3,z> =    -0.0884     [   -0.4248]
 d_dipole_y/<atom=   4,x> =     0.0609     [    0.2926]
 d_dipole_y/<atom=   4,y> =    -0.0738     [   -0.3545]
 d_dipole_y/<atom=   4,z> =     0.0777     [    0.3734]
 d_dipole_y/<atom=   5,x> =    -0.0038     [   -0.0182]
 d_dipole_y/<atom=   5,y> =     0.0794     [    0.3813]
 d_dipole_y/<atom=   5,z> =     0.0107     [    0.0514]
  
 Z vector of derivative dipole (au) [debye/angstrom]
 d_dipole_z/<atom=   1,x> =     0.0000     [    0.0000]
 d_dipole_z/<atom=   1,y> =    -0.0000     [   -0.0000]
 d_dipole_z/<atom=   1,z> =    -0.0303     [   -0.1454]
 d_dipole_z/<atom=   2,x> =    -0.0000     [   -0.0000]
 d_dipole_z/<atom=   2,y> =    -0.0000     [   -0.0000]
 d_dipole_z/<atom=   2,z> =     0.0800     [    0.3841]
 d_dipole_z/<atom=   3,x> =    -0.0374     [   -0.1795]
 d_dipole_z/<atom=   3,y> =    -0.0884     [   -0.4248]
 d_dipole_z/<atom=   3,z> =     0.0221     [    0.1063]
 d_dipole_z/<atom=   4,x> =    -0.0308     [   -0.1479]
 d_dipole_z/<atom=   4,y> =     0.0777     [    0.3734]
 d_dipole_z/<atom=   4,z> =     0.0407     [    0.1954]
 d_dipole_z/<atom=   5,x> =     0.0682     [    0.3274]
 d_dipole_z/<atom=   5,y> =     0.0107     [    0.0514]
 d_dipole_z/<atom=   5,z> =    -0.1125     [   -0.5404]
  
  
 HESSIAN: the Hessian is done
 
 
  Vibrational analysis via the FX method 
 
  See chapter 2 in "Molecular Vibrations" by Wilson, Decius and Cross
 
  Vib: Default input used 
 
  Nuclear Hessian passed symmetry test 
 


 ---------------------------- Atom information ----------------------------
     atom    #        X              Y              Z            mass
 --------------------------------------------------------------------------
    C        1 -3.7794520D-06  2.2204460D-16  0.0000000D+00  1.2000000D+01
    H        2  2.0220030D+00  2.2204460D-16  0.0000000D+00  1.0078250D+00
    H        3 -6.7399345D-01 -1.5954957D+00 -1.0433744D+00  1.0078250D+00
    H        4 -6.7399345D-01  1.7013203D+00 -8.6005209D-01  1.0078250D+00
    H        5 -6.7399345D-01 -1.0582466D-01  1.9034265D+00  1.0078250D+00
 --------------------------------------------------------------------------




          ----------------------------------------------------
          MASS-WEIGHTED NUCLEAR HESSIAN (Hartree/Bohr/Bohr/Kamu)
          ----------------------------------------------------


               1            2            3            4            5            6            7            8            9           10
   ----- ----- ----- ----- -----
    1    5.09983D+01
    2   -5.48555D-04  5.09997D+01
    3   -9.64463D-05 -5.94008D-04  5.09991D+01
    4   -1.07007D+02  3.27284D-06  5.36144D-05  3.95124D+02
    5   -3.05510D-05 -1.24872D+01  4.23875D-05 -2.78224D-04  4.10317D+01
    6   -6.68989D-05  7.03699D-05 -1.24871D+01 -1.00361D-04  5.42032D-05  4.10321D+01
    7   -2.29890D+01 -2.48609D+01 -1.62578D+01 -8.62686D+00 -2.87401D+01 -1.87944D+01  8.03743D+01
    8   -2.48610D+01 -7.13388D+01 -3.84860D+01  8.65778D-01  1.67293D+00  2.25615D+00  9.31344D+01  2.61501D+02
    9   -1.62579D+01 -3.84860D+01 -3.76550D+01  5.66115D-01  2.25619D+00 -3.01715D-01  6.09048D+01  1.44176D+02  1.35314D+02
   10   -2.29892D+01  2.65117D+01 -1.34022D+01 -8.62707D+00  3.06466D+01 -1.54925D+01  3.78976D+00 -1.06332D+01  7.29384D+00  8.03743D+01
   11    2.65117D+01 -7.94088D+01  3.38305D+01 -9.22956D-01  2.14595D+00 -1.98328D+00  9.75884D+00 -2.03101D+01  1.27920D+01 -9.93179D+01
   12   -1.34022D+01  3.38306D+01 -2.95886D+01  4.66500D-01 -1.98325D+00 -7.74631D-01  8.42766D+00 -1.60913D+01  9.26503D+00  5.02075D+01
   13   -2.29891D+01 -1.64900D+00  2.96592D+01 -8.62714D+00 -1.90636D+00  3.42869D+01  3.78978D+00  2.41950D+00 -1.26652D+01  3.78986D+00
   14   -1.64904D+00 -1.27460D+01  4.65702D+00  5.73742D-02 -1.76195D+00 -2.72936D-01  1.16331D+01  3.29982D+00 -2.64229D+01 -1.21780D+01
   15    2.96594D+01  4.65686D+00 -9.62482D+01 -1.03237D+00 -2.73037D-01  3.13323D+00  5.56121D+00  2.45943D+00 -1.43446D+01  4.23729D+00


              11           12           13           14           15
   ----- ----- ----- ----- -----
   11    2.91731D+02
   12   -1.26735D+02  1.05097D+02
   13   -1.00058D+00 -1.28551D+01  8.03726D+01
   14    4.42853D-01  2.80729D+01  6.17766D+00  4.20008D+01
   15   -8.09450D-01 -1.14883D+01 -1.11109D+02 -1.74468D+01  3.54816D+02



          -------------------------------------------------
          NORMAL MODE EIGENVECTORS IN CARTESIAN COORDINATES
          -------------------------------------------------
                 (Frequencies expressed in cm-1)

                    1           2           3           4           5           6
 
 Frequency       -466.04     -466.04     -466.01       -2.21        1.83        3.08
 
           1    -0.00000     0.00000    -0.00001     0.10610    -0.09574     0.20483
           2     0.00000    -0.00000    -0.00000     0.11040     0.21939     0.04536
           3    -0.00000     0.00000    -0.00000     0.19731    -0.07127    -0.13552
           4    -0.00000     0.00000    -0.00001     0.10610    -0.09574     0.20483
           5    -0.49622     0.09312     0.34230     0.11041     0.21940     0.04537
           6     0.35342     0.07923     0.49081     0.19732    -0.07127    -0.13551
           7    -0.20919     0.11437     0.52335     0.10611    -0.09574     0.20484
           8     0.14969    -0.33941    -0.05300     0.11040     0.21939     0.04536
           9    -0.09377     0.44514    -0.25704     0.19731    -0.07127    -0.13553
          10     0.56787    -0.04465    -0.07926     0.10610    -0.09575     0.20483
          11     0.15245    -0.28524    -0.06374     0.11040     0.21939     0.04537
          12    -0.14345    -0.52925    -0.06397     0.19731    -0.07127    -0.13552
          13    -0.35868    -0.06971    -0.44413     0.10609    -0.09574     0.20482
          14     0.19409     0.53152    -0.22558     0.11040     0.21939     0.04536
          15    -0.11621     0.00487    -0.16980     0.19731    -0.07127    -0.13552

                    7           8           9          10          11          12
 
 Frequency       1319.29     1319.30     1319.31     1574.65     1574.66     3254.51
 
           1    -0.11307     0.00927     0.01670    -0.00000    -0.00000    -0.00001
           2    -0.01905    -0.04755    -0.10259     0.00000     0.00000     0.00002
           3    -0.00137    -0.10393     0.04842    -0.00000     0.00000    -0.00001
           4    -0.08735     0.00716     0.01290    -0.00000    -0.00000     0.49817
           5     0.09244     0.23066     0.49770    -0.39430    -0.30429     0.00000
           6     0.00664     0.50420    -0.23492     0.30429    -0.39431    -0.00000
           7     0.44836    -0.21004    -0.17549     0.15412     0.44357    -0.16604
           8    -0.14467    -0.16011     0.27406     0.21189    -0.22071    -0.39305
           9    -0.14840     0.24867    -0.38117    -0.42357     0.05097    -0.25704
          10     0.50682    -0.04705     0.12984    -0.46118    -0.08831    -0.16595
          11     0.19766     0.23593    -0.03458    -0.18777     0.19282     0.41890
          12    -0.04656     0.50156     0.03416    -0.01003     0.45063    -0.21176
          13     0.47841     0.13955    -0.16610     0.30708    -0.35524    -0.16603
          14     0.08141     0.25966     0.48434     0.37019     0.33217    -0.02607
          15     0.20462    -0.01694     0.00536     0.12932    -0.10732     0.46887

                   13          14          15
 
 Frequency       3384.27     3384.28     3384.33
 
           1     0.08519     0.00554     0.02277
           2     0.02299    -0.03641    -0.07716
           3    -0.00454    -0.08032     0.03655
           4    -0.79151    -0.05148    -0.21143
           5     0.00415    -0.00657    -0.01393
           6    -0.00082    -0.01450     0.00660
           7    -0.12416     0.21671     0.11278
           8    -0.32618     0.50406     0.24333
           9    -0.21684     0.31942     0.17483
          10    -0.00712     0.00630    -0.27393
          11     0.06095    -0.01996     0.68793
          12    -0.02953    -0.00773    -0.34820
          13    -0.09158    -0.23753     0.10147
          14    -0.01265    -0.04403     0.00136
          15     0.30127     0.65913    -0.26837
  
  
 ----------------------------------------------------------------------------
 Normal Eigenvalue ||                 Infra Red Intensities
  Mode   [cm**-1]  || [atomic units] [(debye/angs)**2] [(KM/mol)] [arbitrary]
 ------ ---------- || -------------- ----------------- ---------- -----------
    1     -466.039 ||    0.000000           0.000         0.000       0.000
    2     -466.036 ||    0.000000           0.000         0.000       0.000
    3     -466.009 ||    0.000000           0.000         0.000       0.000
    4       -2.214 ||    0.000000           0.000         0.000       0.000
    5        1.832 ||    0.000000           0.000         0.000       0.000
    6        3.078 ||    0.000000           0.000         0.000       0.000
    7     1319.289 ||    0.019133           0.441        18.651      22.822
    8     1319.302 ||    0.019132           0.441        18.651      22.821
    9     1319.305 ||    0.019133           0.441        18.652      22.822
   10     1574.654 ||    0.000000           0.000         0.000       0.000
   11     1574.656 ||    0.000000           0.000         0.000       0.000
   12     3254.513 ||    0.000000           0.000         0.000       0.000
   13     3384.266 ||    0.022786           0.526        22.213      27.179
   14     3384.282 ||    0.022785           0.526        22.212      27.178
   15     3384.331 ||    0.022785           0.526        22.212      27.178
 ----------------------------------------------------------------------------



 
 
        Vibrational analysis via the FX method 
  --- with translations and rotations projected out ---
  --- via the Eckart algorithm                      ---

          --------------------------------------------------------
          MASS-WEIGHTED PROJECTED HESSIAN (Hartree/Bohr/Bohr/Kamu)
          --------------------------------------------------------


               1            2            3            4            5            6            7            8            9           10
   ----- ----- ----- ----- -----
    1    5.09981D+01
    2   -5.34056D-04  5.09997D+01
    3    1.59476D-05 -5.44496D-04  5.09991D+01
    4   -1.07008D+02  1.79702D-05  2.07682D-04  3.95124D+02
    5    1.93038D-04 -1.24870D+01  1.20887D-04 -1.51397D-04  4.41130D+01
    6    9.08645D-05  1.25831D-04 -1.24870D+01 -1.36128D-04  1.55668D-04  4.41130D+01
    7   -2.29892D+01 -2.48608D+01 -1.62575D+01 -8.62670D+00 -2.63086D+01 -1.72043D+01  8.31135D+01
    8   -2.48610D+01 -7.13390D+01 -3.84859D+01  8.65660D-01  6.45635D-01  2.25614D+00  9.23235D+01  2.62664D+02
    9   -1.62576D+01 -3.84859D+01 -3.76550D+01  5.65886D-01  2.25590D+00 -1.32910D+00  6.03747D+01  1.42921D+02  1.37576D+02
   10   -2.29896D+01  2.65116D+01 -1.34020D+01 -8.62692D+00  2.80533D+01 -1.41815D+01  2.41989D+00 -9.76856D+00  6.85664D+00  8.31155D+01
   11    2.65117D+01 -7.94089D+01  3.38305D+01 -9.22866D-01  1.11852D+00 -1.98350D+00  8.94801D+00 -1.92910D+01  1.17571D+01 -9.84529D+01
   12   -1.34021D+01  3.38306D+01 -2.95887D+01  4.66197D-01 -1.98328D+00 -1.80205D+00  7.89730D+00 -1.47531D+01  7.56114D+00  4.97699D+01
   13   -2.29892D+01 -1.64897D+00  2.96592D+01 -8.62674D+00 -1.74516D+00  3.13857D+01  2.42040D+00  2.36560D+00 -1.16981D+01  2.42005D+00
   14   -1.64903D+00 -1.27460D+01  4.65719D+00  5.72952D-02 -2.78915D+00 -2.73226D-01  1.08224D+01  2.14563D+00 -2.41339D+01 -1.13133D+01
   15    2.96596D+01  4.65700D+00 -9.62482D+01 -1.03266D+00 -2.73193D-01  2.10597D+00  5.03093D+00  2.37627D+00 -1.38746D+01  3.80013D+00


              11           12           13           14           15
   ----- ----- ----- ----- -----
   11    2.92632D+02
   12   -1.25632D+02  1.07622D+02
   13   -1.05431D+00 -1.18879D+01  8.31135D+01
   14   -4.48955D-01  2.56313D+01  6.12384D+00  4.50742D+01
   15   -8.78231D-01 -1.12819D+01 -1.10142D+02 -1.72944D+01  3.55167D+02

 center of mass
 --------------
 x =  -0.00000140 y =   0.00000000 z =   0.00000000

 moments of inertia (a.u.)
 ------------------
          10.987961453848          -0.000000000000           0.000000000000
          -0.000000000000          10.987963205754          -0.000046150078
           0.000000000000          -0.000046150078          10.987906579684

 Rotational Constants
 --------------------
 A=   5.478779 cm-1  (  7.882565 K)
 B=   5.478739 cm-1  (  7.882508 K)
 C=   5.478725 cm-1  (  7.882488 K)


 Temperature                      =   298.15K
 frequency scaling parameter      =   1.0000

 Zero-Point correction to Energy  =   29.313 kcal/mol  (  0.046713 au)
 Thermal correction to Energy     =   31.114 kcal/mol  (  0.049583 au)
 Thermal correction to Enthalpy   =   31.706 kcal/mol  (  0.050527 au)

 Total Entropy                    =   49.279 cal/mol-K
   - Translational                =   34.246 cal/mol-K (mol. weight =  16.0313)
   - Rotational                   =   14.941 cal/mol-K (symmetry #  =        1)
   - Vibrational                  =    0.093 cal/mol-K

 Cv (constant volume heat capacity) =    6.491 cal/mol-K
   - Translational                  =    2.979 cal/mol-K
   - Rotational                     =    2.979 cal/mol-K
   - Vibrational                    =    0.532 cal/mol-K



          -------------------------------------------------
          NORMAL MODE EIGENVECTORS IN CARTESIAN COORDINATES
          -------------------------------------------------
             (Projected Frequencies expressed in cm-1)

                    1           2           3           4           5           6
 
 P.Frequency       -0.00        0.00        0.00        0.00        0.00        0.00
 
           1     0.07759     0.22210     0.01873     0.04296     0.06672     0.01960
           2    -0.00584    -0.00736    -0.05172    -0.04165     0.00197     0.24057
           3     0.18197    -0.00444     0.02257    -0.09223    -0.14211    -0.00567
           4     0.07759     0.22210     0.01873     0.04296     0.06672     0.01960
           5     0.09201     0.00688    -0.63831     0.03567    -0.01214     0.13077
           6     0.54060    -0.28231     0.08744     0.12854     0.19085     0.04398
           7     0.33985     0.08996    -0.41065     0.21788     0.22740    -0.04142
           8    -0.04675    -0.01310     0.17068     0.18814    -0.16754     0.32839
           9     0.07512     0.08968    -0.04016    -0.55661     0.01330    -0.10053
          10     0.14780     0.09192     0.53987     0.07181     0.22021     0.13310
          11    -0.04529    -0.01293     0.16596     0.14324    -0.13693     0.31939
          12     0.04892     0.08657     0.04477     0.25090    -0.53716     0.06129
          13    -0.25488     0.48441    -0.07304    -0.16081    -0.24745    -0.03288
          14    -0.02333    -0.01032     0.09477    -0.53363     0.32448     0.18374
          15     0.06328     0.08827    -0.00178    -0.19173    -0.23543    -0.02741

                    7           8           9          10          11          12
 
 P.Frequency     1319.29     1319.30     1319.31     1574.65     1574.66     3254.51
 
           1    -0.07905     0.08029     0.02127    -0.00000    -0.00000    -0.00001
           2    -0.04069    -0.01183    -0.10655     0.00000     0.00000     0.00002
           3    -0.07241    -0.08101     0.03664    -0.00000     0.00000    -0.00001
           4    -0.06108     0.06203     0.01644    -0.00000    -0.00000     0.49817
           5     0.19738     0.05737     0.51691    -0.39430    -0.30429     0.00000
           6     0.35129     0.39299    -0.17776     0.30429    -0.39431    -0.00000
           7     0.20390    -0.43519    -0.21208     0.15412     0.44357    -0.16604
           8    -0.22784    -0.05078     0.25919     0.21188    -0.22071    -0.39305
           9     0.07323     0.32228    -0.34630    -0.42357     0.05097    -0.25704
          10     0.34056    -0.38528     0.10736    -0.46119    -0.08831    -0.16595
          11     0.30584     0.04670    -0.01463    -0.18778     0.19282     0.41889
          12     0.29648     0.39841     0.09095    -0.01003     0.45063    -0.21176
          13     0.45791    -0.19754    -0.16503     0.30708    -0.35525    -0.16603
          14     0.20906     0.08752     0.50722     0.37018     0.33217    -0.02607
          15     0.14120    -0.14913    -0.00317     0.12932    -0.10732     0.46887

                   13          14          15
 
 P.Frequency     3384.27     3384.28     3384.33
 
           1     0.08416     0.01458     0.02260
           2     0.02658    -0.03383    -0.07717
           3     0.00408    -0.08031     0.03661
           4    -0.78195    -0.13546    -0.20987
           5     0.00480    -0.00611    -0.01393
           6     0.00074    -0.01450     0.00661
           7    -0.14627     0.20239     0.11287
           8    -0.37743     0.46677     0.24360
           9    -0.24922     0.29474     0.17502
          10    -0.00825     0.00527    -0.27393
          11     0.06398    -0.01276     0.68782
          12    -0.02918    -0.01114    -0.34814
          13    -0.06565    -0.24582     0.10181
          14    -0.00789    -0.04512     0.00141
          15     0.22905     0.68716    -0.26940
  
  
 ----------------------------------------------------------------------------
 Normal Eigenvalue ||           Projected Infra Red Intensities
  Mode   [cm**-1]  || [atomic units] [(debye/angs)**2] [(KM/mol)] [arbitrary]
 ------ ---------- || -------------- ----------------- ---------- -----------
    1       -0.000 ||    0.000000           0.000         0.000       0.000
    2        0.000 ||    0.000000           0.000         0.000       0.000
    3        0.000 ||    0.000000           0.000         0.000       0.000
    4        0.000 ||    0.000000           0.000         0.000       0.000
    5        0.000 ||    0.000000           0.000         0.000       0.000
    6        0.000 ||    0.000000           0.000         0.000       0.000
    7     1319.294 ||    0.019133           0.441        18.651      22.822
    8     1319.303 ||    0.019132           0.441        18.651      22.821
    9     1319.309 ||    0.019133           0.441        18.652      22.822
   10     1574.654 ||    0.000000           0.000         0.000       0.000
   11     1574.656 ||    0.000000           0.000         0.000       0.000
   12     3254.513 ||    0.000000           0.000         0.000       0.000
   13     3384.266 ||    0.022786           0.526        22.213      27.179
   14     3384.283 ||    0.022785           0.526        22.212      27.178
   15     3384.331 ||    0.022785           0.526        22.212      27.178
 ----------------------------------------------------------------------------



 vib:animation  F
 
 
                                NWChem Input Module
                                -------------------
 
 
                              NWChem Property Module
                              ----------------------
 
 
                                 NWChem DFT Module
                                 -----------------
 
 
                                      methane
 
 
 
  Caching 1-el integrals 
   Time after variat. SCF:      4.4
   Time prior to 1st pass:      4.4


         Total DFT energy =      -40.516209230908
      One electron energy =      -80.312142822379
           Coulomb energy =       33.055350360573
    Exchange-Corr. energy =       -6.945977679130
 Nuclear repulsion energy =       13.686560910028

 Numeric. integr. density =        9.999998445628

     Total iterative time =      0.1s



     --------------------------
     Expectation value of S2:  
     --------------------------
      <S2> =     -0.0000 (Exact =     0.0000)
 

          -----------------------------------------
          Chemical Shielding Tensors (GIAO, in ppm)
          -----------------------------------------

    0 giaofock schwarz done =     100.00%
    0 giaofock schwarz done =     100.00%
    0 giaofock schwarz done =     100.00%
    0 giaofock schwarz done =     100.00%
 SCF residual:   5.243765269862209E-010

 Wrote CPHF data to /qfs/people/jyst649/isicle_test/methane.shieldcphf

 Calc. par tensor-> nonrel
      Atom:    1  C 
        Diamagnetic
    251.4027     -0.0000      0.0000
     -0.0000    251.4027     -0.0001
      0.0000     -0.0001    251.4026

        Paramagnetic
    -52.6022      0.0002     -0.0001
      0.0002    -52.6025     -0.0002
     -0.0001     -0.0002    -52.6024

        Total Shielding Tensor
    198.8005      0.0002     -0.0001
      0.0002    198.8002     -0.0003
     -0.0001     -0.0003    198.8002

           isotropic =     198.8003
          anisotropy =       0.0007

          Principal Components and Axis System
                 1           2           3
              198.8008    198.8003    198.7999

      1         0.7252     -0.6800     -0.1081
      2         0.5308      0.4522      0.7168
      3        -0.4385     -0.5772      0.6888



      Atom:    2  H 
        Diamagnetic
     39.6627     -0.0000     -0.0000
     -0.0000     26.3515     -0.0000
     -0.0000     -0.0000     26.3515

        Paramagnetic
     -0.9378      0.0000      0.0000
      0.0000      3.3302      0.0000
      0.0000      0.0000      3.3302

        Total Shielding Tensor
     38.7250      0.0000     -0.0000
      0.0000     29.6817      0.0000
     -0.0000      0.0000     29.6818

           isotropic =      32.6962
          anisotropy =       9.0432

          Principal Components and Axis System
                 1           2           3
               38.7250     29.6818     29.6817

      1         1.0000     -0.0000     -0.0000
      2         0.0000      0.5770      0.8167
      3        -0.0000      0.8167     -0.5770



      Atom:    3  H 
        Diamagnetic
     27.8305      3.5011      2.2895
      3.5011     34.6394      5.4199
      2.2895      5.4199     29.8958

        Paramagnetic
      2.8560     -1.1226     -0.7341
     -1.1226      0.6728     -1.7378
     -0.7341     -1.7378      2.1938

        Total Shielding Tensor
     30.6865      2.3785      1.5554
      2.3785     35.3123      3.6821
      1.5554      3.6821     32.0896

           isotropic =      32.6961
          anisotropy =       9.0432

          Principal Components and Axis System
                 1           2           3
               38.7249     29.6817     29.6817

      1         0.3333      0.9353     -0.1188
      2         0.7891     -0.3457     -0.5078
      3         0.5160     -0.0755      0.8532



      Atom:    4  H 
        Diamagnetic
     27.8307     -3.7334      1.8873
     -3.7334     35.7757     -4.7640
      1.8873     -4.7640     28.7600

        Paramagnetic
      2.8560      1.1971     -0.6051
      1.1971      0.3086      1.5275
     -0.6051      1.5275      2.5581

        Total Shielding Tensor
     30.6867     -2.5363      1.2822
     -2.5363     36.0843     -3.2365
      1.2822     -3.2365     31.3181

           isotropic =      32.6964
          anisotropy =       9.0433

          Principal Components and Axis System
                 1           2           3
               38.7252     29.6819     29.6819

      1        -0.3333      0.0056      0.9428
      2         0.8414      0.4529      0.2948
      3        -0.4254      0.8915     -0.1557



      Atom:    5  H 
        Diamagnetic
     27.8305      0.2322     -4.1768
      0.2322     26.3880     -0.6558
     -4.1768     -0.6558     38.1473

        Paramagnetic
      2.8560     -0.0745      1.3392
     -0.0745      3.3185      0.2103
      1.3392      0.2103     -0.4519

        Total Shielding Tensor
     30.6866      0.1578     -2.8376
      0.1578     29.7065     -0.4456
     -2.8376     -0.4456     37.6954

           isotropic =      32.6962
          anisotropy =       9.0432

          Principal Components and Axis System
                 1           2           3
               38.7250     29.6818     29.6818

      1        -0.3333      0.8451      0.4180
      2        -0.0523     -0.4593      0.8868
      3         0.9414      0.2737      0.1973



 
 
                                NWChem Input Module
                                -------------------
 
 
                              NWChem Property Module
                              ----------------------
 
 
                                 NWChem DFT Module
                                 -----------------
 
 
                                      methane
 
 
 
  Caching 1-el integrals 
   Time after variat. SCF:      5.5
   Time prior to 1st pass:      5.5


         Total DFT energy =      -40.516209230908
      One electron energy =      -80.312143057904
           Coulomb energy =       33.055350624018
    Exchange-Corr. energy =       -6.945977707050
 Nuclear repulsion energy =       13.686560910028

 Numeric. integr. density =        9.999998445628

     Total iterative time =      0.1s



     --------------------------
     Expectation value of S2:  
     --------------------------
      <S2> =      0.0000 (Exact =     0.0000)
 

      -----------------------------------
      Indirect Spin-Spin Coupling Tensors
      -----------------------------------


      ---------------------------------------------------
      Calculating Fermi-Contact and Spin-Dipole Responses
      ---------------------------------------------------

 SCF residual:   4.818573509149863E-010

      ----------------------------------------------
      Calculating Paramagnetic Spin-Orbit Responses
      ----------------------------------------------

 SCF residual:   4.818551033454842E-010

      ----------------------------------
      Indirect Spin-Spin Tensors (in Hz)
      ----------------------------------

      -------------------------------------------------
      Atom    1:  13-C  and Atom    2:   1-H 

      Respective Nuclear g-factors: 1.404822 & 5.585689
      -------------------------------------------------

      Fermi Contact (FC) Term (Hz):
    133.8714      0.0000      0.0000
      0.0000    133.8714      0.0000
      0.0000      0.0000    133.8714
        Isotropic =     133.8714

      Spin-Dipole   (SD) Term (Hz):
      0.1285     -0.0000      0.0000
      0.0000      0.4073      0.0000
     -0.0000      0.0000      0.4073
        Isotropic =       0.3144

      FC - SD  Cross Term (Hz):
    -10.3000     -0.0001      0.0000
     -0.0001      5.1500      0.0000
      0.0000      0.0000      5.1500
        Isotropic =      -0.0000

      Paramagnetic Spin-Orbit Term (Hz):
     -8.3275      0.0000      0.0000
     -0.0000      6.1381      0.0000
      0.0000      0.0000      6.1381
        Isotropic =       1.3162

      Diamagnetic Spin-Orbit Term (Hz):
     14.4539      0.0000     -0.0000
      0.0000     -6.6977      0.0000
      0.0000      0.0000     -6.6977
        Isotropic =       0.3528

      Total Spin-Spin Coupling Tensor (Hz):
    129.8264     -0.0001      0.0000
     -0.0001    138.8690      0.0000
      0.0001      0.0000    138.8690


      Isotropic Spin-Spin Coupling =     135.8548 Hz



      -------------------------------------------------
      Atom    1:  13-C  and Atom    3:   1-H 

      Respective Nuclear g-factors: 1.404822 & 5.585689
      -------------------------------------------------

      Fermi Contact (FC) Term (Hz):
    133.8729      0.0000      0.0000
      0.0000    133.8729      0.0000
      0.0000      0.0000    133.8729
        Isotropic =     133.8729

      Spin-Dipole   (SD) Term (Hz):
      0.3764     -0.0733     -0.0480
     -0.0733      0.2337     -0.1135
     -0.0480     -0.1135      0.3331
        Isotropic =       0.3144

      FC - SD  Cross Term (Hz):
      3.4337     -4.0636     -2.6575
     -4.0636     -4.4696     -6.2912
     -2.6575     -6.2912      1.0359
        Isotropic =      -0.0000

      Paramagnetic Spin-Orbit Term (Hz):
      4.5308     -3.8047     -2.4881
     -3.8047     -2.8686     -5.8899
     -2.4881     -5.8899      2.2864
        Isotropic =       1.3162

      Diamagnetic Spin-Orbit Term (Hz):
     -4.3477      5.5633      3.6381
      5.5633      6.4719      8.6123
      3.6381      8.6123     -1.0658
        Isotropic =       0.3528

      Total Spin-Spin Coupling Tensor (Hz):
    137.8662     -2.3783     -1.5554
     -2.3783    133.2403     -3.6824
     -1.5554     -3.6824    136.4625


      Isotropic Spin-Spin Coupling =     135.8563 Hz



      -------------------------------------------------
      Atom    1:  13-C  and Atom    4:   1-H 

      Respective Nuclear g-factors: 1.404822 & 5.585689
      -------------------------------------------------

      Fermi Contact (FC) Term (Hz):
    133.8724      0.0000      0.0000
      0.0000    133.8724      0.0000
      0.0000      0.0000    133.8724
        Isotropic =     133.8724

      Spin-Dipole   (SD) Term (Hz):
      0.3764      0.0782     -0.0395
      0.0782      0.2100      0.0998
     -0.0395      0.0998      0.3569
        Isotropic =       0.3144

      FC - SD  Cross Term (Hz):
      3.4337      4.3335     -2.1906
      4.3335     -5.7887      5.5299
     -2.1906      5.5299      2.3550
        Isotropic =      -0.0000

      Paramagnetic Spin-Orbit Term (Hz):
      4.5308      4.0572     -2.0510
      4.0572     -4.1033      5.1772
     -2.0510      5.1772      3.5210
        Isotropic =       1.3162

      Diamagnetic Spin-Orbit Term (Hz):
     -4.3477     -5.9325      2.9990
     -5.9325      8.2772     -7.5702
      2.9990     -7.5702     -2.8710
        Isotropic =       0.3528

      Total Spin-Spin Coupling Tensor (Hz):
    137.8656      2.5364     -1.2822
      2.5364    132.4677      3.2366
     -1.2822      3.2366    137.2343


      Isotropic Spin-Spin Coupling =     135.8559 Hz



      -------------------------------------------------
      Atom    1:  13-C  and Atom    5:   1-H 

      Respective Nuclear g-factors: 1.404822 & 5.585689
      -------------------------------------------------

      Fermi Contact (FC) Term (Hz):
    133.8729      0.0000      0.0000
      0.0000    133.8729      0.0000
      0.0000      0.0000    133.8729
        Isotropic =     133.8729

      Spin-Dipole   (SD) Term (Hz):
      0.3764     -0.0049      0.0875
     -0.0049      0.4066      0.0137
      0.0875      0.0137      0.1603
        Isotropic =       0.3144

      FC - SD  Cross Term (Hz):
      3.4336     -0.2694      4.8481
     -0.2694      5.1080      0.7609
      4.8481      0.7609     -8.5416
        Isotropic =      -0.0000

      Paramagnetic Spin-Orbit Term (Hz):
      4.5308     -0.2523      4.5390
     -0.2523      6.0984      0.7127
      4.5390      0.7127     -6.6807
        Isotropic =       1.3162

      Diamagnetic Spin-Orbit Term (Hz):
     -4.3477      0.3690     -6.6370
      0.3690     -6.6398     -1.0421
     -6.6370     -1.0421     12.0460
        Isotropic =       0.3528

      Total Spin-Spin Coupling Tensor (Hz):
    137.8661     -0.1576      2.8375
     -0.1576    138.8461      0.4452
      2.8375      0.4452    130.8569


      Isotropic Spin-Spin Coupling =     135.8563 Hz



 
 
                                NWChem Input Module
                                -------------------
 
 
                              NWChem Property Module
                              ----------------------
 
 
                                 NWChem DFT Module
                                 -----------------
 
 
                                      methane
 
 
 
  Caching 1-el integrals 
   Time after variat. SCF:      9.8
   Time prior to 1st pass:      9.8


         Total DFT energy =      -40.516209230908
      One electron energy =      -80.312143057683
           Coulomb energy =       33.055350623769
    Exchange-Corr. energy =       -6.945977707022
 Nuclear repulsion energy =       13.686560910028

 Numeric. integr. density =        9.999998445628

     Total iterative time =      0.1s



     --------------------------
     Expectation value of S2:  
     --------------------------
      <S2> =     -0.0000 (Exact =     0.0000)
 
 MOLDEN output will be written to the file 
 /qfs/people/jyst649/isicle_test/methane.molden
  do_norm_janpa  T
  do_norm_nwchem  F
  molden scftype: UHF                  spinref:                      2
 
 
                                NWChem Input Module
                                -------------------
 
 
 
 
                                     CITATION
                                     --------
                Please cite the following reference when publishing
                           results obtained with NWChem:
 
                 M. Valiev, E.J. Bylaska, N. Govind, K. Kowalski,
              T.P. Straatsma, H.J.J. van Dam, D. Wang, J. Nieplocha,
                        E. Apra, T.L. Windus, W.A. de Jong
                 "NWChem: a comprehensive and scalable open-source
                  solution for large scale molecular simulations"
                      Comput. Phys. Commun. 181, 1477 (2010)
                           doi:10.1016/j.cpc.2010.04.018
 
                                      AUTHORS
                                      -------
     E. Apra, E. J. Bylaska, N. Govind, K. Kowalski, M. Valiev, W. A. de Jong,
      T. P. Straatsma, H. J. J. van Dam, D. Wang, T. L. Windus, N. P. Bauman,
       A. Panyala, J. Hammond, J. Autschbach, K. Bhaskaran-Nair, J. Brabec,
    K. Lopata, S. A. Fischer, S. Krishnamoorthy, M. Jacquelin, W. Ma, M. Klemm,
       O. Villa, Y. Chen, V. Anisimov, F. Aquino, S. Hirata, M. T. Hackler,
           Eric Hermes, L. Jensen, J. E. Moore, J. C. Becca, V. Konjkov,
            D. Mejia-Rodriguez, T. Risthaus, M. Malagoli, A. Marenich,
   A. Otero-de-la-Roza, J. Mullin, P. Nichols, R. Peverati, J. Pittner, Y. Zhao,
        P.-D. Fan, A. Fonari, M. J. Williamson, R. J. Harrison, J. R. Rehr,
      M. Dupuis, D. Silverstein, D. M. A. Smith, J. Nieplocha, V. Tipparaju,
      M. Krishnan, B. E. Van Kuiken, A. Vazquez-Mayagoitia, M. Swart, Q. Wu,
   T. Van Voorhis, A. A. Auer, M. Nooijen, L. D. Crosby, E. Brown, G. Cisneros,
     G. I. Fann, H. Fruchtl, J. Garza, K. Hirao, R. A. Kendall, J. A. Nichols,
       K. Tsemekhman, K. Wolinski, J. Anchell, D. E. Bernholdt, P. Borowski,
       T. Clark, D. Clerc, H. Dachsel, M. J. O. Deegan, K. Dyall, D. Elwood,
      E. Glendening, M. Gutowski, A. C. Hess, J. Jaffe, B. G. Johnson, J. Ju,
        R. Kobayashi, R. Kutteh, Z. Lin, R. Littlefield, X. Long, B. Meng,
      T. Nakajima, S. Niu, L. Pollack, M. Rosing, K. Glaesemann, G. Sandrone,
      M. Stave, H. Taylor, G. Thomas, J. H. van Lenthe, A. T. Wong, Z. Zhang.

 Total times  cpu:        5.8s     wall:       12.0s
